# vtk DataFile Version 4.2
vtk output
ASCII
DATASET POLYDATA
POINTS 20164 float
793745 9.194e+06 1796.46 793845 9.194e+06 1801.9 793944 9.194e+06 1803.09 
794044 9.194e+06 1808.44 794144 9.194e+06 1814.58 794244 9.194e+06 1826.85 
794344 9.194e+06 1831.28 794444 9.194e+06 1818.08 794544 9.194e+06 1802.48 
794644 9.194e+06 1790.39 794744 9.194e+06 1790.54 794844 9.194e+06 1800.79 
794943 9.194e+06 1803.85 795043 9.194e+06 1798.05 795143 9.194e+06 1800.88 
795243 9.194e+06 1814.04 795343 9.194e+06 1814.83 795443 9.194e+06 1813.13 
795543 9.194e+06 1812.57 795643 9.194e+06 1811.15 795742 9.194e+06 1811.85 
795842 9.194e+06 1818.03 795942 9.194e+06 1823.51 796042 9.194e+06 1825.29 
796142 9.194e+06 1827.3 796242 9.194e+06 1828.79 796342 9.194e+06 1830.42 
796442 9.194e+06 1837.91 796542 9.194e+06 1839.98 796642 9.194e+06 1842.53 
796741 9.194e+06 1849.74 796841 9.194e+06 1857.86 796941 9.194e+06 1863.2 
797041 9.194e+06 1865.75 797141 9.194e+06 1867.34 797241 9.194e+06 1866.66 
797341 9.194e+06 1874.06 797441 9.194e+06 1880.49 797541 9.194e+06 1883.74 
797640 9.194e+06 1887.89 797740 9.194e+06 1891.42 797840 9.194e+06 1895.02 
797940 9.194e+06 1900.21 798040 9.194e+06 1906.34 798140 9.194e+06 1909.29 
798240 9.194e+06 1907.28 798340 9.194e+06 1909.09 798440 9.194e+06 1932.1 
798540 9.194e+06 1973.97 798639 9.194e+06 2005.74 798739 9.194e+06 2034.23 
798839 9.194e+06 2082.52 798939 9.194e+06 2121.74 799039 9.194e+06 2143.88 
799139 9.194e+06 2148.02 799239 9.194e+06 2140.46 799339 9.194e+06 2135.68 
799439 9.194e+06 2142.88 799538 9.194e+06 2155.27 799638 9.194e+06 2171.38 
799738 9.194e+06 2177.9 799838 9.194e+06 2176.88 799938 9.194e+06 2173.05 
800038 9.194e+06 2170.13 800138 9.194e+06 2171.84 800238 9.194e+06 2185.44 
800338 9.194e+06 2207.03 800438 9.194e+06 2234.83 800537 9.194e+06 2261.3 
800637 9.194e+06 2271.89 800737 9.194e+06 2270.69 800837 9.194e+06 2268.68 
800937 9.194e+06 2266.98 801037 9.194e+06 2266.59 801137 9.194e+06 2263.32 
801237 9.194e+06 2250.86 801337 9.194e+06 2233.89 801436 9.194e+06 2224.3 
801536 9.194e+06 2212.79 801636 9.194e+06 2200.89 801736 9.194e+06 2185.75 
801836 9.194e+06 2167.6 801936 9.194e+06 2144.04 802036 9.194e+06 2120.19 
802136 9.194e+06 2099.81 802236 9.194e+06 2078.55 802336 9.194e+06 2072.87 
802435 9.194e+06 2082.38 802535 9.194e+06 2083.23 802635 9.194e+06 2089.45 
802735 9.194e+06 2096.63 802835 9.194e+06 2057.38 802935 9.194e+06 2017.44 
803035 9.194e+06 2009.72 803135 9.194e+06 1996.85 803235 9.194e+06 1963.96 
803334 9.194e+06 1938.66 803434 9.194e+06 1942.19 803534 9.194e+06 1929.43 
803634 9.194e+06 1896.18 803734 9.194e+06 1838.87 803834 9.194e+06 1802.43 
803934 9.194e+06 1803.35 804034 9.194e+06 1788.63 804134 9.194e+06 1754.42 
804234 9.194e+06 1724.35 804333 9.194e+06 1697.19 804433 9.194e+06 1674.43 
804533 9.194e+06 1651.46 804633 9.194e+06 1620.85 804733 9.194e+06 1590.26 
804833 9.194e+06 1565.59 804933 9.194e+06 1540.46 805033 9.194e+06 1523 
805132 9.194e+06 1509.36 805232 9.194e+06 1497.27 805332 9.194e+06 1489.95 
805432 9.194e+06 1481.68 805532 9.194e+06 1470.81 805632 9.194e+06 1462.66 
805732 9.194e+06 1456.44 805832 9.194e+06 1449.84 805932 9.194e+06 1442.05 
806032 9.194e+06 1429.96 806131 9.194e+06 1414.58 806231 9.194e+06 1399.27 
806331 9.194e+06 1381.86 806431 9.194e+06 1368.02 806531 9.194e+06 1360.29 
806631 9.194e+06 1351.51 806731 9.194e+06 1343.62 806831 9.194e+06 1340.15 
806931 9.194e+06 1337.24 807030 9.194e+06 1328.77 807130 9.194e+06 1315.27 
807230 9.194e+06 1299.82 807330 9.194e+06 1288.57 807430 9.194e+06 1279.86 
807530 9.194e+06 1277.79 807630 9.194e+06 1275.86 807730 9.194e+06 1270.69 
807830 9.194e+06 1264.88 793745 9.1941e+06 1799.4 793845 9.1941e+06 1808.32 
793944 9.1941e+06 1812.96 794044 9.1941e+06 1821.14 794144 9.1941e+06 1825.08 
794244 9.1941e+06 1835.15 794344 9.1941e+06 1840.84 794444 9.1941e+06 1828.36 
794544 9.1941e+06 1810.45 794644 9.1941e+06 1793.28 794744 9.1941e+06 1793.18 
794844 9.1941e+06 1805.87 794943 9.1941e+06 1812.27 795043 9.1941e+06 1805.17 
795143 9.1941e+06 1801.49 795243 9.1941e+06 1810.73 795343 9.1941e+06 1815.24 
795443 9.1941e+06 1816.91 795543 9.1941e+06 1817.42 795643 9.1941e+06 1817.68 
795742 9.1941e+06 1815.41 795842 9.1941e+06 1817.4 795942 9.1941e+06 1822.47 
796042 9.1941e+06 1825.95 796142 9.1941e+06 1828.32 796242 9.1941e+06 1829.81 
796342 9.1941e+06 1831.19 796442 9.1941e+06 1839.14 796542 9.1941e+06 1842.41 
796642 9.1941e+06 1843.03 796741 9.1941e+06 1848.61 796841 9.1941e+06 1856.48 
796941 9.1941e+06 1865.24 797041 9.1941e+06 1870.62 797141 9.1941e+06 1874.08 
797241 9.1941e+06 1875.07 797341 9.1941e+06 1877.07 797441 9.1941e+06 1880.71 
797541 9.1941e+06 1884.9 797640 9.1941e+06 1888.67 797740 9.1941e+06 1894.14 
797840 9.1941e+06 1898.94 797940 9.1941e+06 1905.8 798040 9.1941e+06 1911.87 
798140 9.1941e+06 1911.37 798240 9.1941e+06 1907.81 798340 9.1941e+06 1914.37 
798440 9.1941e+06 1930.25 798540 9.1941e+06 1958.03 798639 9.1941e+06 1988.38 
798739 9.1941e+06 2023.05 798839 9.1941e+06 2064.58 798939 9.1941e+06 2092.75 
799039 9.1941e+06 2110.37 799139 9.1941e+06 2124.95 799239 9.1941e+06 2134.82 
799339 9.1941e+06 2146.15 799439 9.1941e+06 2157.19 799538 9.1941e+06 2164.55 
799638 9.1941e+06 2172.03 799738 9.1941e+06 2171.95 799838 9.1941e+06 2163.96 
799938 9.1941e+06 2153.54 800038 9.1941e+06 2153.38 800138 9.1941e+06 2162.82 
800238 9.1941e+06 2188.78 800338 9.1941e+06 2217.21 800438 9.1941e+06 2241.13 
800537 9.1941e+06 2259.07 800637 9.1941e+06 2262.42 800737 9.1941e+06 2260.38 
800837 9.1941e+06 2261.15 800937 9.1941e+06 2261.09 801037 9.1941e+06 2260.94 
801137 9.1941e+06 2259.69 801237 9.1941e+06 2249.22 801337 9.1941e+06 2232.95 
801436 9.1941e+06 2220.95 801536 9.1941e+06 2212.83 801636 9.1941e+06 2201.09 
801736 9.1941e+06 2183.29 801836 9.1941e+06 2161.89 801936 9.1941e+06 2140.17 
802036 9.1941e+06 2130.29 802136 9.1941e+06 2119.61 802236 9.1941e+06 2113.94 
802336 9.1941e+06 2117.06 802435 9.1941e+06 2122.21 802535 9.1941e+06 2125.86 
802635 9.1941e+06 2130.25 802735 9.1941e+06 2128.76 802835 9.1941e+06 2085.98 
802935 9.1941e+06 2061.86 803035 9.1941e+06 2052.52 803135 9.1941e+06 2020.82 
803235 9.1941e+06 1986.03 803334 9.1941e+06 1981.24 803434 9.1941e+06 1983.25 
803534 9.1941e+06 1955.45 803634 9.1941e+06 1917.2 803734 9.1941e+06 1867.55 
803834 9.1941e+06 1840.55 803934 9.1941e+06 1830.96 804034 9.1941e+06 1802.98 
804134 9.1941e+06 1769.85 804234 9.1941e+06 1737.69 804333 9.1941e+06 1704.83 
804433 9.1941e+06 1680.44 804533 9.1941e+06 1656.5 804633 9.1941e+06 1628.71 
804733 9.1941e+06 1599.5 804833 9.1941e+06 1574.41 804933 9.1941e+06 1547.92 
805033 9.1941e+06 1525.09 805132 9.1941e+06 1506.66 805232 9.1941e+06 1494.51 
805332 9.1941e+06 1486.97 805432 9.1941e+06 1478.54 805532 9.1941e+06 1465.86 
805632 9.1941e+06 1455.91 805732 9.1941e+06 1450.49 805832 9.1941e+06 1444 
805932 9.1941e+06 1439.67 806032 9.1941e+06 1429.98 806131 9.1941e+06 1411.31 
806231 9.1941e+06 1396.25 806331 9.1941e+06 1383.74 806431 9.1941e+06 1369.53 
806531 9.1941e+06 1358.49 806631 9.1941e+06 1351.18 806731 9.1941e+06 1342.85 
806831 9.1941e+06 1335.94 806931 9.1941e+06 1329.16 807030 9.1941e+06 1321.74 
807130 9.1941e+06 1311.66 807230 9.1941e+06 1298.24 807330 9.1941e+06 1289.73 
807430 9.1941e+06 1281.17 807530 9.1941e+06 1278.74 807630 9.1941e+06 1277.17 
807730 9.1941e+06 1270.82 807830 9.1941e+06 1263.18 793745 9.1942e+06 1797.65 
793845 9.1942e+06 1805.96 793944 9.1942e+06 1814.37 794044 9.1942e+06 1823.74 
794144 9.1942e+06 1829.7 794244 9.1942e+06 1840.19 794344 9.1942e+06 1847.04 
794444 9.1942e+06 1835.33 794544 9.1942e+06 1814.94 794644 9.1942e+06 1795.39 
794744 9.1942e+06 1794.79 794844 9.1942e+06 1805.88 794943 9.1942e+06 1816.28 
795043 9.1942e+06 1817.42 795143 9.1942e+06 1808.93 795243 9.1942e+06 1807.85 
795343 9.1942e+06 1811.2 795443 9.1942e+06 1816.59 795543 9.1942e+06 1821.27 
795643 9.1942e+06 1823.32 795742 9.1942e+06 1819.93 795842 9.1942e+06 1818.64 
795942 9.1942e+06 1821.09 796042 9.1942e+06 1824.9 796142 9.1942e+06 1830.19 
796242 9.1942e+06 1832.45 796342 9.1942e+06 1834.2 796442 9.1942e+06 1840.78 
796542 9.1942e+06 1846.41 796642 9.1942e+06 1847.06 796741 9.1942e+06 1850.42 
796841 9.1942e+06 1857.36 796941 9.1942e+06 1866.2 797041 9.1942e+06 1871.37 
797141 9.1942e+06 1874.38 797241 9.1942e+06 1876.84 797341 9.1942e+06 1878.81 
797441 9.1942e+06 1883.02 797541 9.1942e+06 1891.2 797640 9.1942e+06 1896.59 
797740 9.1942e+06 1901.87 797840 9.1942e+06 1904.8 797940 9.1942e+06 1912.07 
798040 9.1942e+06 1918.02 798140 9.1942e+06 1918.29 798240 9.1942e+06 1914.52 
798340 9.1942e+06 1922.41 798440 9.1942e+06 1940.23 798540 9.1942e+06 1961.02 
798639 9.1942e+06 1992.37 798739 9.1942e+06 2022.23 798839 9.1942e+06 2047.83 
798939 9.1942e+06 2076.3 799039 9.1942e+06 2104.1 799139 9.1942e+06 2125.6 
799239 9.1942e+06 2145.21 799339 9.1942e+06 2157.75 799439 9.1942e+06 2163.77 
799538 9.1942e+06 2166.87 799638 9.1942e+06 2164.63 799738 9.1942e+06 2152.58 
799838 9.1942e+06 2138.62 799938 9.1942e+06 2134.79 800038 9.1942e+06 2149.52 
800138 9.1942e+06 2167.86 800238 9.1942e+06 2192.21 800338 9.1942e+06 2217.52 
800438 9.1942e+06 2235.7 800537 9.1942e+06 2249.17 800637 9.1942e+06 2243.53 
800737 9.1942e+06 2242.81 800837 9.1942e+06 2248.99 800937 9.1942e+06 2252.54 
801037 9.1942e+06 2253.47 801137 9.1942e+06 2247.4 801237 9.1942e+06 2233.66 
801337 9.1942e+06 2222.51 801436 9.1942e+06 2218.39 801536 9.1942e+06 2216.45 
801636 9.1942e+06 2206.41 801736 9.1942e+06 2188.53 801836 9.1942e+06 2166.86 
801936 9.1942e+06 2151.79 802036 9.1942e+06 2154.09 802136 9.1942e+06 2151.42 
802236 9.1942e+06 2156.25 802336 9.1942e+06 2163.52 802435 9.1942e+06 2162.67 
802535 9.1942e+06 2168.89 802635 9.1942e+06 2169.03 802735 9.1942e+06 2164.43 
802835 9.1942e+06 2128.62 802935 9.1942e+06 2105.57 803035 9.1942e+06 2079.19 
803135 9.1942e+06 2041.8 803235 9.1942e+06 2021.23 803334 9.1942e+06 2024.25 
[...]
POINT_DATA 20164
SCALARS elevation double
LOOKUP_TABLE default
1796.4550781 1801.8964844 1803.0928955 1808.4368896 1814.583252 1826.8483887 1831.2794189 1818.0783691 1802.4772949 
1790.3865967 1790.5384521 1800.7873535 1803.8461914 1798.0526123 1800.8795166 1814.0438232 1814.8302002 1813.1291504 
1812.567627 1811.152832 1811.8466797 1818.0306396 1823.5145264 1825.2872314 1827.2956543 1828.7945557 1830.4210205 
1837.9119873 1839.9796143 1842.5335693 1849.7449951 1857.8638916 1863.1982422 1865.7475586 1867.3414307 1866.6628418 
1874.0563965 1880.4915771 1883.7354736 1887.8868408 1891.4233398 1895.0159912 1900.2144775 1906.3408203 1909.2922363 
1907.2807617 1909.0933838 1932.1048584 1973.9661865 2005.7376709 2034.2269287 2082.5163574 2121.7426758 2143.8764648 
2148.015625 2140.456543 2135.684082 2142.8754883 2155.2695312 2171.3847656 2177.895752 2176.8820801 2173.0461426 
2170.1274414 2171.8393555 2185.4360352 2207.0349121 2234.826416 2261.3024902 2271.8925781 2270.6940918 2268.675293 
2266.9768066 2266.5869141 2263.3178711 2250.8569336 2233.8908691 2224.3000488 2212.7895508 2200.8857422 2185.7521973 
2167.5986328 2144.0395508 2120.1923828 2099.8137207 2078.545166 2072.8710938 2082.3789062 2083.2250977 2089.4516602 
2096.6254883 2057.3808594 2017.4417725 2009.7156982 1996.8520508 1963.9584961 1938.6552734 1942.1895752 1929.4260254 
1896.1824951 1838.8718262 1802.4335938 1803.3499756 1788.6314697 1754.4228516 1724.3463135 1697.1939697 1674.425415 
1651.4593506 1620.8511963 1590.2554932 1565.5869141 1540.4632568 1523.0047607 1509.3557129 1497.2734375 1489.954834 
1481.6837158 1470.807251 1462.6573486 1456.4362793 1449.84021 1442.0466309 1429.9633789 1414.5753174 1399.269165 
1381.8580322 1368.0231934 1360.2941895 1351.5081787 1343.6196289 1340.1534424 1337.239502 1328.7746582 1315.2735596 
1299.8199463 1288.565918 1279.8636475 1277.7900391 1275.8614502 1270.6878662 1264.8842773 1799.3963623 1808.3227539 
1812.9592285 1821.1380615 1825.0770264 1835.1496582 1840.8356934 1828.364624 1810.4460449 1793.277832 1793.1796875 
1805.8710938 1812.2724609 1805.1739502 1801.4857178 1810.7275391 1815.2414551 1816.9078369 1817.4188232 1817.6765137 
1815.4104004 1817.3994141 1822.4658203 1825.9533691 1828.3168945 1829.810791 1831.1872559 1839.1381836 1842.4084473 
1843.03479 1848.6062012 1856.4776611 1865.236084 1870.6187744 1874.0751953 1875.0690918 1877.067627 1880.7053223 
1884.9017334 1888.6680908 1894.1395264 1898.9355469 1905.7956543 1911.8720703 1911.3685303 1907.8137207 1914.3696289 
1930.25354 1958.0300293 1988.3764648 2023.0499268 2064.5751953 2092.7514648 2110.3730469 2124.9492188 2134.8178711 
2146.152832 2157.1918945 2164.5458984 2172.0292969 2171.9470215 2163.958252 2153.5397949 2153.3762207 2162.8237305 
2188.7797852 2217.2087402 2241.130127 2259.0720215 2262.4162598 2260.3828125 2261.1516113 2261.0854492 2260.9448242 
2259.689209 2249.2231445 2232.9470215 2220.9462891 2212.8308105 2201.0947266 2183.2861328 2161.8874512 2140.1694336 
2130.2910156 2119.6125488 2113.9414062 2117.060791 2122.2124023 2125.8613281 2130.2504883 2128.7641602 2085.9785156 
2061.862793 2052.5244141 2020.8157959 1986.034668 1981.2381592 1983.253418 1955.4472656 1917.196167 1867.5463867 
1840.5473633 1830.9637451 1802.982666 1769.8465576 1737.6942139 1704.8251953 1680.4442139 1656.5006104 1628.7056885 
1599.5042725 1574.4082031 1547.9195557 1525.0909424 1506.6635742 1494.5070801 1486.9685059 1478.5424805 1465.8551025 
1455.9111328 1450.4925537 1443.9989014 1439.6678467 1429.9830322 1411.3139648 1396.2453613 1383.7393799 1369.5345459 
1358.4904785 1351.1794434 1342.8508301 1335.9422607 1329.1557617 1321.7434082 1311.6573486 1298.2387695 1289.7338867 
1281.1699219 1278.7437744 1277.1727295 1270.8240967 1263.1779785 1797.6525879 1805.9589844 1814.3654785 1823.7393799 
1829.6958008 1840.1859131 1847.0368652 1835.3283691 1814.9372559 1795.3857422 1794.7883301 1805.8823242 1816.2762451 
1817.4176025 1808.9302979 1807.8463135 1811.2027588 1816.5916748 1821.2667236 1823.317749 1819.9266357 1818.640625 
1821.092041 1824.9013672 1830.1881104 1832.4520264 1834.1984863 1840.777832 1846.4146729 1847.0610352 1850.4150391 
1857.3614502 1866.1990967 1871.3699951 1874.3814697 1876.8378906 1878.805542 1883.0164795 1891.1954346 1896.5869141 
1901.8707275 1904.8000488 1912.0668945 1918.0158691 1918.2922363 1914.5166016 1922.4084473 1940.2272949 1961.0236816 
1992.3726807 2022.2327881 2047.8288574 2076.295166 2104.1015625 2125.5957031 2145.2089844 2157.746582 2163.765625 
2166.8745117 2164.6320801 2152.5756836 2138.6220703 2134.7861328 2149.5249023 2167.8566895 2192.2084961 2217.5224609 
2235.701416 2249.1733398 2243.5275879 2242.8063965 2248.987793 2252.5393066 2253.4743652 2247.3955078 2233.6618652 
2222.5131836 2218.3891602 2216.4494629 2206.4084473 2188.5322266 2166.861084 2151.7922363 2154.0874023 2151.4162598 
2156.2526855 2163.5185547 2162.6738281 2168.8901367 2169.0290527 2164.4306641 2128.619873 2105.5693359 2079.1879883 
2041.7969971 2021.230957 2024.2478027 2009.614624 1972.4060059 1933.3649902 1895.7375488 1868.463623 1835.3100586 
1787.8764648 1746.0578613 1705.3988037 1671.9189453 1646.6503906 1627.7443848 1608.7869873 1587.4554443 1568.5144043 
1547.7282715 1530.2122803 1515.2298584 1500.4783936 1488.807251 1477.5336914 1464.0529785 1449.7799072 1441.8012695 
1434.7851562 1428.0865479 1423.8026123 1410.567749 1394.456665 1383.4805908 1372.0706787 1357.7067871 1349.4082031 
1342.8120117 1335.230957 1326.2020264 1318.9395752 1311.7110596 1301.9049072 1293.1551514 1283.6861572 1278.0150146 
1274.1713867 1269.572876 1263.4017334 1798.3288574 1804.9752197 1812.8342285 1819.9255371 1827.1094971 1840.2254639 
1846.9230957 1834.9870605 1815.1960449 1797.3553467 1794.6021729 1800.0535889 1813.8900146 1825.8813477 1824.3748779 
1814.9400635 1814.3939209 1819.7628174 1824.911377 1827.6065674 1823.8529053 1821.6293945 1823.3432617 1826.8858643 
1830.5218506 1833.3383789 1836.4422607 1841.7374268 1850.5334473 1855.3448486 1858.1586914 1862.4851074 1868.2486572 
1873.7062988 1876.5227051 1879.496582 1881.8084717 1887.5377197 1899.0041504 1905.2906494 1907.427002 1909.4763184 
1917.0081787 1924.6695557 1925.1109619 1922.7445068 1927.7271729 1950.4985352 1978.9100342 2008.6864014 2028.4190674 
2046.8175049 2075.7189941 2106.550293 2132.0493164 2154.7768555 2163.885498 2165.0244141 2159.4008789 2140.6850586 
2124.3520508 2123.293457 2131.824707 2146.4711914 2163.3164062 2184.9199219 2207.9511719 2224.6726074 2232.029541 
2227.2587891 2231.2751465 2240.4267578 2246.7504883 2247.8039551 2233.9416504 2217.0830078 2213.3520508 2220.6589355 
2220.3632812 2212.0646973 2200.043457 2180.9274902 2165.3635254 2178.6811523 2189.9475098 2199.6989746 2211.873291 
2223.7924805 2228.2290039 2225.800293 2215.1442871 2178.7460938 2143.470459 2102.6943359 2069.190918 2065.0422363 
2063.387207 2026.6134033 1983.4923096 1943.0537109 1912.2705078 1874.15979 1816.0987549 1752.9401855 1706.2441406 
1665.9866943 1636.0252686 1615.1466064 1599.1256104 1582.8881836 1567.0042725 1552.703125 1537.8395996 1524.918457 
1515.5093994 1501.114624 1486.0935059 1472.8574219 1458.2475586 1444.3710938 1436.0825195 1427.2539062 1420.2553711 
1415.2054443 1409.8990479 1395.7453613 1381.3018799 1368.7353516 1355.5930176 1345.9619141 1339.9533691 1335.5097656 
1328.9482422 1322.3983154 1315.0123291 1306.1312256 1294.6380615 1283.7473145 1277.4837646 1271.0101318 1265.9216309 
1261.2755127 1802.9050293 1810.8740234 1817.0604248 1822.1418457 1827.9332275 1840.4483643 1845.881958 1834.0533447 
1818.4647217 1804.0131836 1798.0084229 1797.78479 1808.3161621 1824.1525879 1837.5111084 1830.0412598 1827.4926758 
1829.2391357 1828.7342529 1829.2927246 1826.4841309 1823.9631348 1826.7769775 1831.6505127 1832.9681396 1833.9371338 
1835.5460205 1841.7686768 1855.8671875 1863.8334961 1867.8850098 1871.7264404 1877.5031738 1880.3549805 1882.2264404 
1883.8128662 1885.9797363 1891.4865723 1901.362915 1911.4093018 1912.4407959 1914.3126221 1923.3944092 1932.9033203 
1934.4047852 1935.9523926 1935.3383789 1952.7398682 1987.6837158 2024.4251709 2041.6920166 2051.8413086 2072.8552246 
2102.6315918 2133.4179688 2157.8881836 2162.6315918 2156.9606934 2136.3295898 2110.2946777 2107.2856445 2126.2470703 
2144.7983398 2153.1149902 2156.935791 2170.0310059 2192.4050293 2211.4489746 2217.2441406 2225.0500488 2233.644043 
2239.9729004 2244.166748 2243.090332 2222.6430664 2204.354248 2206.7158203 2225.7634277 2230.1818848 2221.6608887 
2210.7746582 2193.3762207 2179.2297363 2201.5522461 2228.526123 2246.8000488 2259.3793945 2271.6838379 2285.7851562 
2284.9865723 2265.4755859 2224.3422852 2170.4516602 2126.9082031 2104.1894531 2103.3911133 2080.3735352 2025.489624 
1977.7885742 1936.7224121 1888.4683838 1838.8560791 1790.4825439 1740.1014404 1695.5003662 1652.0963135 1625.9790039 
1616.9803467 1606.5567627 1588.3227539 1571.8804932 1556.7894287 1539.5758057 1522.682251 1505.4306641 1491.043335 
1480.2947998 1470.4187012 1457.4222412 1444.6673584 1435.4962158 1424.7426758 1416.0290527 1407.3100586 1401.9501953 
1394.706665 1382.0855713 1365.0349121 1352.3592529 1344.6131592 1338.1645508 1332.8010254 1326.3444824 1320.8596191 
1315.1210938 1308.2424316 1297.855957 1285.9211426 1279.2299805 1271.8964844 1265.8703613 1260.5317383 1803.6392822 
1813.0390625 1821.7271729 1828.3702393 1833.5333252 1844.00354 1849.0003662 1839.3466797 1827.9014893 1818.1132812 
1809.1368408 1802.8232422 1807.4996338 1820.2293701 1845.9750977 1850.1813965 1846.4094238 1841.8492432 1835.3937988 
1833.5828857 1830.9143066 1827.6040039 1829.3171387 1836.9155273 1839.2507324 1838.7971191 1837.9501953 1841.8143311 
1856.9422607 1869.2719727 1879.4899902 1890.4348145 1901.6427002 1895.9884033 1892.8282471 1892.1662598 1893.7680664 
1898.2615967 1904.407959 1915.6561279 1917.0775146 1917.8887939 1925.9995117 1934.1608887 1937.7340088 1943.7930908 
1948.2910156 1957.2840576 1983.4954834 2023.4536133 2061.6125488 2081.6904297 2099.3786621 2122.7583008 2144.0249023 
2155.7666016 2151.003418 2132.6865234 2104.8762207 2089.8964844 2109.5400391 2138.8496094 2159.7727051 2167.5158691 
2167.2905273 2170.8828125 2189.0375977 2210.390625 2221.9645996 2232.7609863 2236.9707031 2239.5654297 2242.3969727 
2239.8586426 2220.2072754 2201.1269531 2206.3134766 2228.0651855 2233.6420898 2227.5351562 2221.5114746 2210.0446777 
2200.6191406 2222.4033203 2259.90625 2290.1943359 2316.166748 2335.947998 2351.1860352 2342.8308105 2311.3989258 
2265.8496094 2206.3708496 2170.1972656 2149.6787109 2125.798584 2071.0480957 2002.1121826 1935.4069824 1882.4666748 
1818.9312744 1767.5186768 1735.4317627 1707.3215332 1681.1679688 1663.7441406 1660.744873 1656.0629883 1639.3743896 
1612.6984863 1580.6380615 1554.4178467 1534.8508301 1520.138916 1502.8168945 1490.9559326 1483.2640381 1474.9920654 
1463.0822754 1451.600708 1440.3937988 1428.1335449 1419.3632812 1407.8295898 1396.4403076 1389.0001221 1381.2714844 
1367.260498 1354.5234375 1347.6965332 1340.78125 1332.4610596 1323.9234619 1317.8630371 1311.276123 1305.1558838 
1299.2265625 1292.9378662 1288.2475586 1281.7806396 1275.4154053 1269.6851807 1798.5969238 1806.2432861 1817.15979 
1822.6186523 1826.4700928 1833.6418457 1840.9112549 1841.5001221 1839.661499 1834.2333984 1820.607666 1810.604126 
1812.1929932 1821.2844238 1845.407959 1862.2355957 1863.8670654 1855.0184326 1843.1977539 1838.217041 1835.4384766 
1832.3149414 1832.8588867 1839.7039795 1843.3774414 1844.3138428 1844.3203125 1843.3421631 1849.6665039 1860.2753906 
1875.1917725 1896.4556885 1920.5999756 1915.7668457 1904.9832764 1901.512207 1901.9848633 1906.0333252 1907.7423096 
1914.8436279 1920.8925781 1921.5144043 1929.5336914 1936.5001221 1940.5891113 1945.4276123 1958.8302002 1976.3366699 
1997.3605957 2020.3544922 2060.3654785 2093.2880859 2120.1669922 2137.2434082 2145.2473145 2148.083252 2129.0209961 
2101.125 2081.5712891 2091.7597656 2120.1074219 2147.8764648 2165.0654297 2166.7167969 2170.6411133 2182.7954102 
2198.7468262 2215.3508301 2225.8591309 2234.2919922 2233.8657227 2232.1147461 2230.8710938 2221.8671875 2202.6398926 
2190.2587891 2197.3452148 2215.5834961 2222.1262207 2222.9650879 2225.9541016 2225.3830566 2222.7915039 2235.2192383 
2274.7255859 2319.9245605 2368.1079102 2394.3032227 2380.6870117 2337.6809082 2296.2849121 2257.1958008 2232.3635254 
2210.517334 2167.5588379 2109.7302246 2035.0887451 1952.5714111 1881.6303711 1838.2542725 1798.2635498 1759.6503906 
1732.8393555 1714.5657959 1702.9547119 1697.4165039 1683.5032959 1659.7471924 1631.423584 1596.6612549 1564.9772949 
1545.40625 1532.7851562 1522.2390137 1510.6942139 1502.3652344 1495.0091553 1484.4379883 1470.4106445 1457.0167236 
1444.6280518 1431.4945068 1421.5634766 1409.050293 1396.5270996 1388.1259766 1382.0898438 1374.0617676 1361.736084 
1352.7324219 1345.2938232 1337.1053467 1328.1879883 1320.6239014 1311.4053955 1300.3768311 1293.0561523 1290.0354004 
1288.6018066 1285.5057373 1281.4321289 1278.0185547 1800.2456055 1802.7070312 1811.7860107 1816.8149414 1820.9462891 
1827.4764404 1833.4724121 1838.241333 1844.152832 1844.9763184 1833.2539062 1821.9553223 1819.649292 1825.7507324 
1842.7058105 1859.5343018 1867.5557861 1867.4471436 1853.4656982 1842.5883789 1838.6271973 1835.8261719 1835.4851074 
1841.9686279 1848.3187256 1848.4626465 1847.9165039 1849.5184326 1851.7877197 1854.4766846 1868.2130127 1896.0194092 
1931.7279053 1931.9156494 1918.0419922 1909.4934082 1905.7744141 1908.2470703 1909.7834473 1913.4074707 1922.8238525 
1931.1123047 1937.2824707 1942.326416 1948.4228516 1957.2955322 1961.93396 1977.2429199 2003.0617676 2021.1982422 
2041.8116455 2069.9169922 2102.940918 2123.9897461 2131.4660645 2125.0478516 2097.9973145 2078.8188477 2073.2949219 
2096.2045898 2125.6289062 2147.3950195 2158.9541016 2153.7155762 2157.7790527 2182.3967285 2203.7255859 2217.2670898 
2226.3554688 2233.6555176 2232.1069336 2221.1259766 2208.932373 2192.2866211 2177.1435547 2176.8273926 2185.4013672 
2198.6748047 2205.9875488 2214.5588379 2225.3427734 2231.8393555 2235.8911133 2245.8278809 2277.7617188 2324.8781738 
2384.5625 2412.7692871 2370.8583984 2300.9597168 2251.5236816 2200.8054199 2198.7348633 2196.338623 2155.4375 
2089.2338867 2005.6483154 1928.2252197 1881.6191406 1857.6080322 1847.2897949 1819.9691162 1791.9980469 1770.1794434 
1748.6158447 1718.9543457 1678.3720703 1643.4584961 1612.4748535 1586.5408936 1573.1835938 1563.9074707 1551.8463135 
1536.9927979 1523.3071289 1512.6164551 1502.9403076 1488.6693115 1472.8452148 1458.3803711 1445.5667725 1432.560791 
1420.427124 1406.706543 1394.5457764 1385.432251 1379.1486816 1373.2596436 1363.2972412 1355.3686523 1348.732666 
1341.2990723 1331.4091797 1321.6751709 1310.8990479 1299.6330566 1288.0689697 1280.8967285 1279.8980713 1279.2545166 
1276.7509766 1274.2272949 1800.0743408 1802.2508545 1807.3621826 1814.3336182 1820.1975098 1827.8060303 1832.8986816 
1836.3126221 1842.8740234 1847.8708496 1845.3951416 1838.291626 1833.7404785 1835.2319336 1844.3171387 1858.8880615 
1867.9644775 1872.7059326 1864.9002686 1851.4645996 1843.9060059 1840.3999023 1838.0688477 1842.6680908 1854.0825195 
1855.9963379 1854.4178467 1854.9946289 1857.4313965 1857.902832 1864.1843262 1889.8156738 1934.2242432 1948.7818604 
1939.1483154 1927.5721436 1914.9406738 1911.0457764 1912.6547852 1917.5361328 1926.1125488 1941.8201904 1951.1062012 
1951.255127 1952.8515625 1966.1850586 1973.6777344 1981.8615723 1999.2580566 2020.381958 2036.0612793 2057.1381836 
2078.0219727 2094.2709961 2098.6347656 2090.1176758 2073.6960449 2070.3598633 2073.3288574 2091.6655273 2120.2773438 
2134.6088867 2141.3278809 2135.1391602 2137.6169434 2169.1479492 2201.8293457 2219.4956055 2226.3583984 2231.1794434 
2229.2783203 2211.3171387 2189.1035156 2168.6428223 2159.0446777 2167.3662109 2175.9001465 2185.6894531 2196.2111816 
2211.2851562 2226.9416504 2237.470459 2248.934082 2261.354248 2279.345459 2315.1818848 2368.4587402 2400.9506836 
2356.8945312 2284.1384277 2218.7299805 2150.7099609 2125.3959961 2129.2023926 2115.6987305 2075.5976562 2013.0429688 
1956.7539062 1927.9053955 1914.939209 1910.1810303 1879.6678467 1843.8393555 1811.4057617 1777.137207 1728.0256348 
1677.1357422 1643.7297363 1617.0786133 1601.0854492 1593.8048096 1581.8812256 1565.107666 1547.911499 1533.5750732 
1519.90271 1505.9715576 1490.4229736 1472.8365479 1457.0041504 1443.7730713 1430.2669678 1417.0609131 1401.9077148 
1388.7770996 1379.6109619 1371.7873535 1363.7508545 1358.0734863 1353.9425049 1347.6763916 1339.5328369 1329.675415 
1318.7214355 1306.0228271 1296.5267334 1286.4335938 1277.5704346 1271.296875 1268.3406982 1268.4296875 1266.8410645 
1790.8353271 1796.9517822 1804.7880859 1812.1445312 1818.4260254 1826.8917236 1834.5996094 1839.0294189 1843.1707764 
1849.0114746 1855.3961182 1854.9274902 1848.7939453 1847.7503662 1855.6455078 1867.2039795 1872.6538086 1878.1085205 
1880.1641846 1864.9504395 1851.8652344 1848.2116699 1845.7380371 1844.9315186 1854.7584229 1863.3498535 1865.0079346 
1863.8114014 1862.9898682 1863.3696289 1866.1693115 1881.1990967 1924.8309326 1955.40271 1959.5374756 1954.3422852 
1935.0662842 1922.1425781 1920.3422852 1922.8370361 1930.6484375 1948.6414795 1967.9837646 1973.2419434 1967.6633301 
1971.737915 1990.7885742 2005.3850098 2011.0664062 2025.90625 2041.0341797 2053.1081543 2060.4047852 2065.1542969 
2064.6923828 2063.6037598 2066.3261719 2073.4243164 2084.0307617 2096.1035156 2104.8259277 2108.9355469 2111.4870605 
2114.2133789 2128.5932617 2154.4570312 2184.340332 2209.4133301 2215.2207031 2214.5651855 2212.248291 2197.6430664 
2175.2346191 2156.1845703 2154.1547852 2161.2946777 2169.5227051 2186.416748 2207.9030762 2226.7094727 2241.6691895 
2252.8239746 2272.5996094 2295.0241699 2306.4990234 2318.4003906 2355.8349609 2380.6240234 2339.0336914 2260.5119629 
2186.4599609 2110.277832 2054.6069336 2034.0983887 2020.5847168 2008.9678955 1995.8408203 1976.62146 1959.1312256 
1946.8776855 1926.2561035 1879.9063721 1829.9827881 1792.1940918 1753.6005859 1708.0379639 1671.9425049 1650.3806152 
1633.2786865 1618.6500244 1604.184082 1587.720459 1572.1918945 1558.6633301 1541.6105957 1523.5836182 1508.458374 
1492.8347168 1472.0205078 1453.7401123 1440.8731689 1428.1745605 1413.4626465 1397.2399902 1382.9296875 1372.5760498 
1362.852417 1352.7954102 1346.5777588 1343.0925293 1337.6040039 1330.1453857 1322.8983154 1314.97229 1304.6420898 
1292.1335449 1282.7414551 1276.2254639 1269.0435791 1259.8950195 1255.2613525 1254.7277832 1786.2512207 1791.4501953 
1798.9615479 1803.5029297 1808.1418457 1817.8511963 1833.4105225 1843.381958 1848.2608643 1853.2176514 1863.7244873 
1867.2384033 1864.2523193 1865.7363281 1874.3972168 1879.8898926 1881.6962891 1886.5028076 1892.720459 1872.8638916 
1856.0128174 1854.1617432 1853.8081055 1851.1016846 1851.8968506 1858.1607666 1863.177124 1867.6680908 1870.5333252 
1870.8647461 1870.9560547 1872.5574951 1893.774292 1931.8812256 1958.7200928 1970.4439697 1954.6558838 1936.9077148 
1935.1865234 1934.2929688 1937.2043457 1953.4853516 1977.1330566 1994.4669189 1994.4108887 1985.3352051 1998.2769775 
2018.1809082 2021.4573975 2027.2762451 2040.326416 2054.9223633 2059.7915039 2059.3027344 2056.3991699 2064.1442871 
2074.9128418 2082.7041016 2098.9155273 2117.0673828 2115.0644531 2107.7783203 2107.6721191 2113.9685059 2135.4135742 
2154.7546387 2166.2836914 2187.817627 2196.0834961 2193.213623 2188.7751465 2179.1164551 2163.2380371 2152.1230469 
2159.5615234 2167.6831055 2172.7268066 2188.5529785 2217.1005859 2243.4694824 2264.2683105 2279.9023438 2306.0224609 
2338.2858887 2354.557373 2361.2363281 2383.767334 2391.0725098 2348.4589844 2246.4277344 2173.3991699 2109.9433594 
2064.8828125 2023.9117432 1980.1732178 1945.7420654 1926.0463867 1914.5532227 1897.5021973 1881.9061279 1855.4796143 
1816.6696777 1779.6062012 1748.1950684 1721.0665283 1694.2941895 1670.2851562 1657.121582 1646.7404785 1633.4989014 